# vtk DataFile Version 2.0
output.vtk
ASCII
DATASET UNSTRUCTURED_GRID
POINTS 79 double
0.953253 0.559519 1
1 0 0
1 0.322765 0.185705
1 0.112546 0
0.951074 0 0
1 0 1
0.552454 0.246929 0.872672
1 0.544796 1
0.983326 0.1112 0
0.937045 0.350496 0.214691
0.634515 0.393771 1
0.582749 0.186998 1
0.647826 0 0.562768
0.663255 0 1
0.838818 0.445009 0.447853
0.580858 0.353656 0.877406
1 1 0.545252
0.55554 0.743466 0
1 1 0
0.638372 0.475931 0
0.743291 0.673505 0.430075
0.870463 1 0.574601
0.88422 0.166994 0
0.682054 0.404514 0.124548
0.581269 1 0
0.643882 0.659045 0.359173
0.550366 0.845882 0
0.730211 1 0.478132
0.635597 0.685171 0.358039
0.635261 0.707369 0.361688
0.279808 0.87631 0
0.189103 0.914503 0.493092
0.470492 0.441804 0.287248
-5.55112e-17 0.685509 0.32487
-5.55112e-17 0.670888 0.333887
0.288111 0.884459 0
0.596196 0.496434 0
-5.55112e-17 0.69052 0.344294
0.550171 0.650724 0.410666
0.0477063 0.633472 0.321637
0.365469 0.822452 0.472335
0.281208 0.404177 0.696467
0.294418 0.26722 0.454156
0.512056 0 0.321841
0.916355 -5.55112e-17 0
0.546958 0.655849 0.823925
0.708729 0.675756 0.567625
0.408768 0.641125 0.744715
0.551562 0.668903 0.812262
0.416538 0.650325 0.739638
0 0.470004 0.760743
0.625154 0.678987 1
0 0.652806 1
0 0.375837 1
0 0.631087 0.807475
0.784308 1 1
0.737435 0.846382 1
1 1 1
0.770254 1 0.960724
0.705445 0.845924 0.910995
-2.77556e-17 0.637825 0.335878
2.77556e-17 0.452805 0
0 0.852899 0
0 0 0.387298
0 0 1
0 0.3342 0.517984
0 0 0
0 1 0
0.206814 1 0.55489
0.195768 0.969362 0.553794
0.138218 1 0.625181
0 0.961969 0.664831
0.33069 1 0
0.130758 1 0.629744
0 1 0.675208
0.366944 1 0.500089
0.136705 1 0.628894
0.416239 1 -5.55112e-17
0 1 1

CELLS 325 1146
1 0
1 1
1 2
1 3
1 4
1 5
1 6
1 7
1 8
1 9
1 10
1 11
1 12
1 13
1 14
1 15
1 16
1 17
1 18
1 19
1 20
1 21
1 22
1 23
1 24
1 25
1 26
1 27
1 28
1 29
1 30
1 31
1 32
1 33
1 34
1 35
1 36
1 37
1 38
1 39
1 40
1 41
1 42
1 43
1 44
1 45
1 46
1 47
1 48
1 49
1 50
1 51
1 52
1 53
1 54
1 55
1 56
1 57
1 58
1 59
1 60
1 61
1 62
1 63
1 64
1 65
1 66
1 67
1 68
1 69
1 70
1 71
1 72
1 73
1 74
1 75
1 76
1 77
1 78
2 1 3
2 3 8
2 8 4
2 4 1
2 1 5
2 5 7
2 7 2
2 2 3
2 4 12
2 12 13
2 13 5
2 7 0
2 0 14
2 14 9
2 9 2
2 9 8
2 14 15
2 15 6
2 6 12
2 13 11
2 11 10
2 10 0
2 6 11
2 15 10
2 3 18
2 18 24
2 24 26
2 26 17
2 17 19
2 19 22
2 22 8
2 2 16
2 16 18
2 26 29
2 29 28
2 28 17
2 28 25
2 25 23
2 23 19
2 16 21
2 21 27
2 27 24
2 9 20
2 20 21
2 22 23
2 25 20
2 29 27
2 31 35
2 35 17
2 28 40
2 40 31
2 31 37
2 37 33
2 33 30
2 30 35
2 40 38
2 38 32
2 32 39
2 39 34
2 34 37
2 32 23
2 19 36
2 36 39
2 38 25
2 30 36
2 33 34
2 20 46
2 46 48
2 48 49
2 49 38
2 42 32
2 49 47
2 47 41
2 41 42
2 42 43
2 43 44
2 44 22
2 41 6
2 12 43
2 4 44
2 14 46
2 47 45
2 45 15
2 45 48
2 51 52
2 52 54
2 54 47
2 45 51
2 51 10
2 11 53
2 53 52
2 53 50
2 50 54
2 41 50
2 7 57
2 57 16
2 21 58
2 58 59
2 59 46
2 57 55
2 55 58
2 56 59
2 55 56
2 56 0
2 61 60
2 60 39
2 36 61
2 61 62
2 62 33
2 34 60
2 30 62
2 63 43
2 42 65
2 65 63
2 63 64
2 64 13
2 65 50
2 53 64
2 65 60
2 63 66
2 66 61
2 44 66
2 35 72
2 72 67
2 67 62
2 67 74
2 74 71
2 71 37
2 72 68
2 68 70
2 70 73
2 73 74
2 31 69
2 69 68
2 69 70
2 71 73
2 59 48
2 49 76
2 76 58
2 29 75
2 75 68
2 69 40
2 70 76
2 75 27
2 54 71
2 73 76
2 77 75
2 26 77
2 77 24
2 51 56
2 77 72
2 55 78
2 78 74
2 52 78
4 1 3 8 4
5 1 5 7 2 3
5 1 4 12 13 5
5 2 7 0 14 9
4 2 9 8 3
7 4 8 9 14 15 6 12
6 5 13 11 10 0 7
4 6 11 13 12
4 6 15 10 11
4 10 15 14 0
8 3 18 24 26 17 19 22 8
4 3 2 16 18
4 17 26 29 28
5 17 28 25 23 19
5 18 16 21 27 24
5 9 20 21 16 2
6 9 8 22 23 25 20
3 19 23 22
6 20 25 28 29 27 21
4 24 27 29 26
5 31 35 17 28 40
5 31 37 33 30 35
7 31 40 38 32 39 34 37
5 32 23 19 36 39
4 32 38 25 23
5 17 35 30 36 19
5 33 34 39 36 30
3 33 37 34
4 25 38 40 28
6 25 20 46 48 49 38
6 42 32 38 49 47 41
6 42 43 44 22 23 32
5 42 41 6 12 43
4 12 4 44 43
4 9 14 46 20
5 6 41 47 45 15
4 4 8 22 44
5 15 45 48 46 14
4 45 47 49 48
5 51 52 54 47 45
5 51 10 11 53 52
4 51 45 15 10
4 52 53 50 54
5 53 11 6 41 50
4 54 50 41 47
4 2 7 57 16
5 20 21 58 59 46
5 16 57 55 58 21
4 56 59 58 55
5 56 0 14 46 59
5 56 55 57 7 0
4 61 60 39 36
5 61 62 33 34 60
4 61 36 30 62
3 62 30 33
3 39 60 34
4 63 43 42 65
5 63 64 13 12 43
5 63 65 50 53 64
4 41 50 65 42
4 64 53 11 13
5 60 39 32 42 65
5 60 65 63 66 61
4 44 66 63 43
6 44 22 19 36 61 66
5 30 35 72 67 62
6 67 74 71 37 33 62
6 67 72 68 70 73 74
5 68 72 35 31 69
3 68 69 70
6 69 31 37 71 73 70
3 71 74 73
5 59 48 49 76 58
3 59 46 48
6 40 28 29 75 68 69
6 40 69 70 76 49 38
7 68 75 27 21 58 76 70
3 29 27 75
6 49 47 54 71 73 76
7 37 71 54 50 65 60 34
3 70 76 73
3 31 40 69
4 77 75 29 26
4 77 24 27 75
3 77 26 24
4 0 10 51 56
5 56 51 45 48 59
5 77 72 35 17 26
4 77 75 68 72
6 58 55 78 74 73 76
5 55 56 51 52 78
5 54 71 74 78 52

CELL_TYPES 325
1
1
1
1
1
1
1
1
1
1
1
1
1
1
1
1
1
1
1
1
1
1
1
1
1
1
1
1
1
1
1
1
1
1
1
1
1
1
1
1
1
1
1
1
1
1
1
1
1
1
1
1
1
1
1
1
1
1
1
1
1
1
1
1
1
1
1
1
1
1
1
1
1
1
1
1
1
1
1
3
3
3
3
3
3
3
3
3
3
3
3
3
3
3
3
3
3
3
3
3
3
3
3
3
3
3
3
3
3
3
3
3
3
3
3
3
3
3
3
3
3
3
3
3
3
3
3
3
3
3
3
3
3
3
3
3
3
3
3
3
3
3
3
3
3
3
3
3
3
3
3
3
3
3
3
3
3
3
3
3
3
3
3
3
3
3
3
3
3
3
3
3
3
3
3
3
3
3
3
3
3
3
3
3
3
3
3
3
3
3
3
3
3
3
3
3
3
3
3
3
3
3
3
3
3
3
3
3
3
3
3
3
3
3
3
3
3
3
3
3
3
3
3
3
3
3
3
3
3
3
3
3
3
7
7
7
7
7
7
7
7
7
7
7
7
7
7
7
7
7
7
7
7
7
7
7
7
7
7
7
7
7
7
7
7
7
7
7
7
7
7
7
7
7
7
7
7
7
7
7
7
7
7
7
7
7
7
7
7
7
7
7
7
7
7
7
7
7
7
7
7
7
7
7
7
7
7
7
7
7
7
7
7
7
7
7
7
7
7
7
7
7
7
7
7

POINT_DATA 79
VECTORS Displacement double
0 0 0
0 0 0
0 0 0
0 0 0
0 0 0
0 0 0
0.00100074 0.000853644 0.000986347
0 0 0
0 0 0
0.00114135 0.00109928 0.00108082
0 0 0
0 0 0
0 0 0
0 0 0
0.00199235 0.00189655 0.00183825
0.001544 0.00133208 0.00145931
0 0 0
0 0 0
0 0 0
0 0 0
0.00234848 0.00218251 0.00214978
0 0 0
0 0 0
0.00164749 0.00156287 0.00155458
0 0 0
0.00273992 0.00258931 0.00251269
0 0 0
0 0 0
0.00260801 0.00247793 0.00239347
0.00244571 0.00232946 0.00225576
0 0 0
0.00112865 0.00117027 0.00102803
0.00251001 0.00234883 0.00235055
0 0 0
0 0 0
0 0 0
0 0 0
0 0 0
0.00347535 0.003262 0.00317584
0.000345649 0.000358147 0.000327204
0.00263254 0.00255878 0.00239285
0.00254292 0.00230459 0.00239517
0.00149435 0.00134363 0.00144216
0 0 0
0 0 0
0.00326587 0.00288187 0.00293292
0.00274959 0.00250266 0.00246263
0.00409625 0.00366489 0.00370555
0.00330118 0.00290817 0.00295148
0.0041471 0.00371192 0.00373785
0 0 0
0 0 0
0 0 0
0 0 0
0 0 0
0 0 0
0 0 0
0 0 0
0 0 0
0.00105135 0.000893648 0.000892919
0 0 0
0 0 0
0 0 0
0 0 0
0 0 0
0 0 0
0 0 0
0 0 0
0 0 0
0.000558564 0.000565935 0.000508981
0 0 0
0 0 0
0 0 0
0 0 0
0 0 0
0 0 0
0 0 0
0 0 0
0 0 0
